data_170764-ICSD
#?2017 by Fachinformationszentrum Karlsruhe, and the U.S. Secretary of 
#Commerce on behalf of the United States.  All rights reserved.
_database_code_ICSD                170764
_audit_creation_date               2006/04/01
_chemical_name_systematic          'Silver(I) Trimercury Antimonate(V)'
_chemical_formula_structural       'Ag Hg3 Sb O6'
_chemical_formula_sum              'Ag1 Hg3 O6 Sb1'
_publ_section_title
;
Silver(I) trimercury(II) antimonate(V), Ag Hg3 Sb O6
;
loop_
_citation_id
_citation_journal_abbrev
_citation_year
_citation_journal_volume
_citation_journal_issue
_citation_page_first
_citation_page_last
_citation_journal_id_ASTM
primary 'Acta Crystallographica, Section C: Crystal Structure Communications'
 2005 61 * i94 i95 ACSCEE
_publ_author_name                  'Klein, W.;Jansen, M.'
_cell_length_a                     9.627(3)
_cell_length_b                     9.627(3)
_cell_length_c                     12.601(4)
_cell_angle_alpha                  90.
_cell_angle_beta                   90.
_cell_angle_gamma                  120.
_cell_volume                       1011.39
_cell_formula_units_Z              6
_symmetry_space_group_name_H-M     'R -3 c H'
_symmetry_Int_Tables_number        167
_refine_ls_R_factor_all            0.049
loop_
_symmetry_equiv_pos_site_id
_symmetry_equiv_pos_as_xyz
  1	'x-y, -y, -z+1/2'
  2	'-x, -x+y, -z+1/2'
  3	'y, x, -z+1/2'
  4	'x-y, x, -z'
  5	'y, -x+y, -z'
  6	'-x, -y, -z'
  7	'-x+y, y, z+1/2'
  8	'x, x-y, z+1/2'
  9	'-y, -x, z+1/2'
 10	'-x+y, -x, z'
 11	'-y, x-y, z'
 12	'x, y, z'
 13	'x-y+2/3, -y+1/3, -z+5/6'
 14	'x-y+1/3, -y+2/3, -z+1/6'
 15	'-x+2/3, -x+y+1/3, -z+5/6'
 16	'-x+1/3, -x+y+2/3, -z+1/6'
 17	'y+2/3, x+1/3, -z+5/6'
 18	'y+1/3, x+2/3, -z+1/6'
 19	'x-y+2/3, x+1/3, -z+1/3'
 20	'x-y+1/3, x+2/3, -z+2/3'
 21	'y+2/3, -x+y+1/3, -z+1/3'
 22	'y+1/3, -x+y+2/3, -z+2/3'
 23	'-x+2/3, -y+1/3, -z+1/3'
 24	'-x+1/3, -y+2/3, -z+2/3'
 25	'-x+y+2/3, y+1/3, z+5/6'
 26	'-x+y+1/3, y+2/3, z+1/6'
 27	'x+2/3, x-y+1/3, z+5/6'
 28	'x+1/3, x-y+2/3, z+1/6'
 29	'-y+2/3, -x+1/3, z+5/6'
 30	'-y+1/3, -x+2/3, z+1/6'
 31	'-x+y+2/3, -x+1/3, z+1/3'
 32	'-x+y+1/3, -x+2/3, z+2/3'
 33	'-y+2/3, x-y+1/3, z+1/3'
 34	'-y+1/3, x-y+2/3, z+2/3'
 35	'x+2/3, y+1/3, z+1/3'
 36	'x+1/3, y+2/3, z+2/3'
loop_
_atom_type_symbol
_atom_type_oxidation_number
Ag1+	1
Hg2+	2
O2-	-2
Sb5+	5
loop_
_atom_site_label
_atom_site_type_symbol
_atom_site_symmetry_multiplicity
_atom_site_Wyckoff_symbol
_atom_site_fract_x
_atom_site_fract_y
_atom_site_fract_z
_atom_site_occupancy
_atom_site_attached_hydrogens
_atom_site_U_iso_or_equiv
Ag1 Ag1+ 6 a 0.0000 0.0000 0.2500 1 0 0.0524(8) 
Hg1 Hg2+ 18 e 0.33954(7) 0.0000 0.2500 1 0 0.0282(3) 
Sb1 Sb5+ 6 b 0.0000 0.0000 0.0000 1 0 0.0214(5) 
O1 O2- 36 f 0.1936(10) 0.0873(13) 0.0930(7) 1 0 0.028(2) 

loop_
_atom_site_aniso_label
_atom_site_aniso_type_symbol
_atom_site_aniso_U_11
_atom_site_aniso_U_22
_atom_site_aniso_U_33
_atom_site_aniso_U_12
_atom_site_aniso_U_13
_atom_site_aniso_U_23
Ag1 Ag1+ 0.0648(12) 0.0648(12) 0.028(2) 0.0324(6) 0.000 0.000
Hg1 Hg2+ 0.0277(4) 0.0236(4) 0.0320(5) 0.0118(2) -0.00090(14) -0.0018(3)
Sb1 Sb5+ 0.0211(6) 0.0211(6) 0.0218(12) 0.0106(3) 0.000 0.000
O1 O2- 0.025(4) 0.027(4) 0.027(4) 0.009(4) -0.003(3) -0.002(4)
#End of data_170764-ICSD


